###############################################################################
# Takata, M.;Nishibori, E.;Takayama, T.;Sakata, M.;Kodama, K.;Sato, M.;\
# Howard, C.J. (1996)
# Physica C (Amsterdam) 263, 176-179
# The nuclear density of YBCO by the maximum entropy method using neutron \
# powder data
# 
# CIF by ICSD-for-WWW,  Copyright 2003 FIZ-Karlsruhe & A.W.Hewat (hewat@ill.fr)
# NOT TO BE PUBLISHED IN ANY FORM. See http://icsd.ill.fr/icsd/conditions.html
###############################################################################

data_83086-ICSD
_database_code_ICSD                83086
_audit_creation_date               1998-06-26
_chemical_name_systematic
'Yttrium barium copper oxide (1/2/3/6.97)'
_chemical_formula_structural       
'Y Ba2 Cu3 O6.97'
_chemical_formula_sum              
'Ba2 Cu3 O6.97 Y1'
_publ_section_title                
'Ba2 Cu3 O6.97 Y1'
loop_
_citation_id
_citation_journal_abbrev
_citation_year
_citation_journal_volume
_citation_page_first
_citation_page_last
_citation_journal_id_ASTM
primary 'Physica C (Amsterdam)' 1996 263 176 179 PHYCE6
loop_
_publ_author_name
Takata, M.;Nishibori, E.;Takayama, T.;Sakata, M.;Kodama, K.;Sato, M.;\
Howard, C.J.
_cell_length_a                     3.81550(8)
_cell_length_b                     3.88203(9)
_cell_length_c                     11.6458(3)
_cell_angle_alpha                  90.
_cell_angle_beta                   90.
_cell_angle_gamma                  90.
_cell_volume                       172.5005
_cell_formula_units_Z              1
_symmetry_space_group_name_H-M     'P m m m'
_symmetry_Int_Tables_number        47
_refine_ls_R_factor_all            0.0325
loop_
_symmetry_equiv_pos_site_id
_symmetry_equiv_pos_as_xyz
   1   'x, -y, z'
   2   '-x, y, z'
   3   'x, y, -z'
   4   '-x, -y, -z'
   5   '-x, y, -z'
   6   'x, -y, -z'
   7   '-x, -y, z'
   8   'x, y, z'
loop_
_atom_type_symbol
_atom_type_oxidation_number
Y3+     3.
Ba2+     2.
Cu2+13     2.313
O2-     -2.
 loop_
_atom_site_label
_atom_site_type_symbol
_atom_site_symmetry_multiplicity
_atom_site_Wyckoff_symbol
_atom_site_fract_x
_atom_site_fract_y
_atom_site_fract_z
_atom_site_B_iso_or_equiv
_atom_site_occupancy
Y1 Y3+ 1 h 0.5 0.5 0.5 0.0 1.
Ba1 Ba2+ 2 t 0.5 0.5 0.1841(3) 0.0 1.
Cu1 Cu2+13 1 a 0 0 0 0.0 1.
Cu2 Cu2+13 2 q 0 0 0.3551(2) 0.0 1.
O1 O2- 2 q 0 0 0.1586(2) 0.0 1.
O2 O2- 2 s 0.5 0 0.3775(3) 0.0 1.
O3 O2- 2 r 0 0.5 0.3778(3) 0.0 1.
O4 O2- 1 e 0 0.5 0 0.0 0.97(1)
loop_
_atom_site_aniso_label
_atom_site_aniso_type_symbol
_atom_site_aniso_U_11
_atom_site_aniso_U_22
_atom_site_aniso_U_33
_atom_site_aniso_U_12
_atom_site_aniso_U_13
_atom_site_aniso_U_23
Y1 Y3+ 0. 0. 0. 0 0 0
Ba1 Ba2+ 0. 0. 0. 0 0 0
Cu1 Cu2+13 0. 0. 0. 0 0 0
Cu2 Cu2+13 0. 0. 0. 0 0 0
O1 O2- 0. 0. 0. 0 0 0
O2 O2- 0. 0. 0. 0 0 0
O3 O2- 0. 0. 0. 0 0 0
O4 O2- 0. 0. 0. 0 0 0
#End of data_83086-ICSD

